<?xml version="1.0" encoding="UTF-8"?>

<!-- generated on 2024-10-10 05:32:46 by Eclipse SUMO GUI Version v1_20_0+2260-ad4b419b9d8
<sumoConfiguration xmlns:xsi="http://www.w3.org/2001/XMLSchema-instance" xsi:noNamespaceSchemaLocation="http://sumo.dlr.de/xsd/sumoConfiguration.xsd">

    <input>
        <net-file value="intelligent_traffic.net.xml"/>
        <route-files value="intelligent_traffic.rou.xml"/>
    </input>

    <output>
        <tripinfo-output value="intelligent_lights_output_file.xml"/>
    </output>

    <time>
        <begin value="0"/>
        <end value="15000"/>
        <step-length value="0.01"/>
    </time>

    <report>
        <duration-log.statistics value="true"/>
    </report>

    <traci_server>
        <remote-port value="48859"/>
    </traci_server>

    <gui_only>
        <gui-settings-file value="intelligent_traffic.gui.xml"/>
        <start value="true"/>
    </gui_only>

</sumoConfiguration>
-->

<detector xmlns:xsi="http://www.w3.org/2001/XMLSchema-instance" xsi:noNamespaceSchemaLocation="http://sumo.dlr.de/xsd/det_e1_file.xsd">
    <interval begin="0.00" end="60.07" id="junction_0_D0.0" nVehContrib="12" flow="719.16" occupancy="7.20" speed="17.86" harmonicMeanSpeed="16.20" length="5.83" nVehEntered="12"/>
    <interval begin="0.00" end="60.07" id="junction_0_D0.1" nVehContrib="5" flow="299.65" occupancy="6.14" speed="12.92" harmonicMeanSpeed="7.79" length="5.60" nVehEntered="5"/>
    <interval begin="0.00" end="60.07" id="junction_0_D0.2" nVehContrib="4" flow="239.72" occupancy="2.29" speed="14.04" harmonicMeanSpeed="12.55" length="4.50" nVehEntered="4"/>
    <interval begin="0.00" end="60.07" id="junction_0_D1.0" nVehContrib="0" flow="0.00" occupancy="0.00" speed="-1.00" harmonicMeanSpeed="-1.00" length="-1.00" nVehEntered="0"/>
    <interval begin="0.00" end="60.07" id="junction_0_D1.1" nVehContrib="0" flow="0.00" occupancy="0.00" speed="-1.00" harmonicMeanSpeed="-1.00" length="-1.00" nVehEntered="0"/>
    <interval begin="0.00" end="60.07" id="junction_0_D1.2" nVehContrib="0" flow="0.00" occupancy="0.00" speed="-1.00" harmonicMeanSpeed="-1.00" length="-1.00" nVehEntered="0"/>
    <interval begin="0.00" end="60.07" id="junction_0_D2.0" nVehContrib="2" flow="119.86" occupancy="0.80" speed="16.60" harmonicMeanSpeed="16.60" length="4.00" nVehEntered="2"/>
    <interval begin="0.00" end="60.07" id="junction_0_D2.1" nVehContrib="1" flow="59.93" occupancy="3.62" speed="16.60" harmonicMeanSpeed="16.60" length="4.00" nVehEntered="2"/>
    <interval begin="0.00" end="60.07" id="junction_0_D2.2" nVehContrib="0" flow="0.00" occupancy="0.00" speed="-1.00" harmonicMeanSpeed="-1.00" length="-1.00" nVehEntered="0"/>
    <interval begin="0.00" end="60.07" id="junction_0_D3.0" nVehContrib="0" flow="0.00" occupancy="0.00" speed="-1.00" harmonicMeanSpeed="-1.00" length="-1.00" nVehEntered="0"/>
    <interval begin="0.00" end="60.07" id="junction_0_D3.1" nVehContrib="1" flow="59.93" occupancy="0.40" speed="16.60" harmonicMeanSpeed="16.60" length="4.00" nVehEntered="1"/>
    <interval begin="0.00" end="60.07" id="junction_0_D3.2" nVehContrib="1" flow="59.93" occupancy="0.40" speed="16.60" harmonicMeanSpeed="16.60" length="4.00" nVehEntered="1"/>
</detector>
